 Q-Chem 5.4, Q-Chem, Inc., Pleasanton, CA (2021)
 Q-Chem 5.4.1 for Intel X86 EM64T Linux

User input:
--------------------------------------------------------------
$molecule
0 1
H        1.36499000      1.69385000     -0.19748000
O        2.32877000      1.56294000     -0.04168000
H        2.70244000      1.31157000     -0.91665000
$end

$rem
JOBTYPE           sp
METHOD            src1-r1
BASIS             gen
UNRESTRICTED      True
SYMMETRY          False
SYM_IGNORE        True
SOLVENT_METHOD    smd
$end

$basis
H 0
pc-2
****
O 0
S   1   1.00
0.168149D+05           1.0000000
S   1   1.00
0.252216D+04           1.0000000
S   1   1.00
0.574121D+03           1.0000000
S   1   1.00
0.162513D+03           1.0000000
S   1   1.00
0.526845D+02           1.0000000
S   1   1.00
0.186061D+02           1.0000000
S   1   1.00
0.682448D+01           1.0000000
S   1   1.00
0.193105D+01           1.0000000
S   1   1.00
0.743149D+00           1.0000000
S   1   1.00
0.247793D+00           1.0000000
P   1   1.00
0.684929D+02           1.0000000
P   1   1.00
0.158224D+02           1.0000000
P   1   1.00
0.473591D+01           1.0000000
P   1   1.00
0.161501D+01           1.0000000
P   1   1.00
0.540907D+00           1.0000000
P   1   1.00
0.163898D+00           1.0000000
D   1   1.00
0.248193D+01           1.0000000
D   1   1.00
0.721110D+00           1.0000000
F   1   1.00
0.114891D+01           1.0000000
****
$end

$smx
solvent    water
$end

--------------------------------------------------------------

    7     -76.5368218146      7.24e-06  Convergence criterion met
 Total energy in the final basis set =      -76.5344743503

          Ground-State Mulliken Net Atomic Charges

     Atom                 Charge (a.u.)    Spin (a.u.)
  --------------------------------------------------------
      1 H                     0.304419      -0.000267
      2 O                    -0.608183       0.000532
      3 H                     0.303763      -0.000265
  --------------------------------------------------------
  Sum of atomic charges =     0.000000

 Total job time:  6.19s(wall), 2.72s(cpu)
        *  Thank you very much for using Q-Chem.  Have a nice day.  *
 Q-Chem 5.4, Q-Chem, Inc., Pleasanton, CA (2021)
 Q-Chem 5.4.1 for Intel X86 EM64T Linux

User input:
--------------------------------------------------------------

$molecule
read
$end

$rem
JOBTYPE           sp
METHOD            src1-r1
BASIS             gen
UNRESTRICTED      True
SYMMETRY          False
SYM_IGNORE        True
SCF_GUESS         read
MOM_START         1
MOM_METHOD        IMOM
CIS_N_ROOTS       10
CIS_SINGLETS      True
CIS_TRIPLETS      False
STATE_ANALYSIS    True
TRNSS             True
TRTYPE            3
N_SOL             1
SOLVENT_METHOD    smd
$end

$basis
H 0
pc-2
****
O 0
S   1   1.00
0.168149D+05           1.0000000
S   1   1.00
0.252216D+04           1.0000000
S   1   1.00
0.574121D+03           1.0000000
S   1   1.00
0.162513D+03           1.0000000
S   1   1.00
0.526845D+02           1.0000000
S   1   1.00
0.186061D+02           1.0000000
S   1   1.00
0.682448D+01           1.0000000
S   1   1.00
0.193105D+01           1.0000000
S   1   1.00
0.743149D+00           1.0000000
S   1   1.00
0.247793D+00           1.0000000
P   1   1.00
0.684929D+02           1.0000000
P   1   1.00
0.158224D+02           1.0000000
P   1   1.00
0.473591D+01           1.0000000
P   1   1.00
0.161501D+01           1.0000000
P   1   1.00
0.540907D+00           1.0000000
P   1   1.00
0.163898D+00           1.0000000
D   1   1.00
0.248193D+01           1.0000000
D   1   1.00
0.721110D+00           1.0000000
F   1   1.00
0.114891D+01           1.0000000
****
$end

$smx
solvent    water
$end

$occupied
1:5
1:5
$end

$solute
1
$end
--------------------------------------------------------------

             Standard Nuclear Orientation (Angstroms)
    I     Atom           X                Y                Z
 ----------------------------------------------------------------
    1      H       1.3649900000     1.6938500000    -0.1974800000
    2      O       2.3287700000     1.5629400000    -0.0416800000
    3      H       2.7024400000     1.3115700000    -0.9166500000
 ----------------------------------------------------------------

    8     -76.5368222461      9.85e-09  Convergence criterion met
 Total energy in the final basis set =      -76.5344747817

         TDDFT/TDA Excitation Energies
 ---------------------------------------------------

 Excited state   1: excitation energy (eV) =  533.9298
 Total energy for state  1:                   -56.91291437 au
    <S**2>     :  2.0000
    Trans. Mom.: -0.0000 X  -0.0000 Y  -0.0000 Z
    Strength   :     0.0000000000
    D(    1) --> V(    1) amplitude = -0.6579 alpha
    D(    1) --> V(    5) amplitude = -0.1928 alpha
    D(    1) --> V(    1) amplitude =  0.6579 beta
    D(    1) --> V(    5) amplitude =  0.1928 beta

 Excited state   2: excitation energy (eV) =  535.0965
 Total energy for state  2:                   -56.87004159 au
    <S**2>     :  2.0000
    Trans. Mom.: -0.0000 X   0.0000 Y  -0.0000 Z
    Strength   :     0.0000000000
    D(    1) --> V(    2) amplitude = -0.6175 alpha
    D(    1) --> V(    3) amplitude = -0.2292 alpha
    D(    1) --> V(    7) amplitude = -0.2398 alpha
    D(    1) --> V(    2) amplitude =  0.6175 beta
    D(    1) --> V(    3) amplitude =  0.2292 beta
    D(    1) --> V(    7) amplitude =  0.2398 beta

 Excited state   3: excitation energy (eV) =  535.1010
 Total energy for state  3:                   -56.86987591 au
    <S**2>     :  0.0000
    Trans. Mom.: -0.0179 X  -0.0035 Y  -0.0307 Z
    Strength   :     0.0167642433
    D(    1) --> V(    1) amplitude =  0.6844 alpha
    D(    1) --> V(    1) amplitude =  0.6844 beta

 Excited state   4: excitation energy (eV) =  536.2528
 Total energy for state  4:                   -56.82754594 au
    <S**2>     :  0.0000
    Trans. Mom.: -0.0510 X   0.0146 Y   0.0276 Z
    Strength   :     0.0469065136
    D(    1) --> V(    2) amplitude =  0.6529 alpha
    D(    1) --> V(    3) amplitude =  0.1938 alpha
    D(    1) --> V(    7) amplitude =  0.1807 alpha
    D(    1) --> V(    2) amplitude =  0.6529 beta
    D(    1) --> V(    3) amplitude =  0.1938 beta
    D(    1) --> V(    7) amplitude =  0.1807 beta

 Excited state   5: excitation energy (eV) =  540.9118
 Total energy for state  5:                   -56.65633150 au
    <S**2>     :  2.0000
    Trans. Mom.: -0.0000 X  -0.0000 Y  -0.0000 Z
    Strength   :     0.0000000000
    D(    1) --> V(    1) amplitude =  0.2238 alpha
    D(    1) --> V(    5) amplitude = -0.6527 alpha
    D(    1) --> V(    1) amplitude = -0.2238 beta
    D(    1) --> V(    5) amplitude =  0.6527 beta

 Excited state   6: excitation energy (eV) =  541.5567
 Total energy for state  6:                   -56.63263220 au
    <S**2>     :  2.0000
    Trans. Mom.:  0.0000 X   0.0000 Y  -0.0000 Z
    Strength   :     0.0000000000
    D(    1) --> V(    6) amplitude =  0.6997 alpha
    D(    1) --> V(    6) amplitude = -0.6997 beta

 Excited state   7: excitation energy (eV) =  541.7889
 Total energy for state  7:                   -56.62409779 au
    <S**2>     :  2.0000
    Trans. Mom.: -0.0000 X   0.0000 Y   0.0000 Z
    Strength   :     0.0000000000
    D(    1) --> V(    2) amplitude =  0.2994 alpha
    D(    1) --> V(    3) amplitude = -0.6176 alpha
    D(    1) --> V(    7) amplitude = -0.1594 alpha
    D(    1) --> V(    2) amplitude = -0.2994 beta
    D(    1) --> V(    3) amplitude =  0.6176 beta
    D(    1) --> V(    7) amplitude =  0.1594 beta

 Excited state   8: excitation energy (eV) =  542.0061
 Total energy for state  8:                   -56.61611551 au
    <S**2>     :  0.0000
    Trans. Mom.: -0.0332 X  -0.0046 Y  -0.0476 Z
    Strength   :     0.0449502575
    D(    1) --> V(    1) amplitude = -0.1646 alpha
    D(    1) --> V(    4) amplitude =  0.2178 alpha
    D(    1) --> V(    5) amplitude =  0.6320 alpha
    D(    1) --> V(    1) amplitude = -0.1646 beta
    D(    1) --> V(    4) amplitude =  0.2178 beta
    D(    1) --> V(    5) amplitude =  0.6320 beta

 Excited state   9: excitation energy (eV) =  542.0261
 Total energy for state  9:                   -56.61538222 au
    <S**2>     :  0.0000
    Trans. Mom.: -0.0173 X   0.0077 Y   0.0224 Z
    Strength   :     0.0114293920
    D(    1) --> V(    2) amplitude = -0.2284 alpha
    D(    1) --> V(    3) amplitude =  0.6406 alpha
    D(    1) --> V(    2) amplitude = -0.2284 beta
    D(    1) --> V(    3) amplitude =  0.6406 beta

 Excited state  10: excitation energy (eV) =  542.7462
 Total energy for state 10:                   -56.58891806 au
    <S**2>     :  2.0000
    Trans. Mom.:  0.0000 X   0.0000 Y   0.0000 Z
    Strength   :     0.0000000000
    D(    1) --> V(    4) amplitude = -0.6786 alpha
    D(    1) --> V(    4) amplitude =  0.6786 beta

 ---------------------------------------------------

                    Orbital Energies (a.u.)
 --------------------------------------------------------------

 Alpha MOs
 -- Occupied --
-19.7394  -1.0723  -0.5372  -0.4151  -0.3408

 Beta MOs
 -- Occupied --
-19.7394  -1.0723  -0.5372  -0.4151  -0.3408

                    Cartesian Multipole Moments
 -----------------------------------------------------------------
    Charge (ESU x 10^10)
                 0.0000
    Dipole Moment (Debye)
         X      -1.2257      Y      -0.2503      Z      -2.1418
       Tot       2.4804
    Quadrupole Moments (Debye-Ang)
        XX     -10.1987     XY      -3.1595     YY      -8.1755
        XZ      -5.5219     YZ      -2.7561     ZZ      -5.2084

 Total job time:  15.43s(wall), 14.14s(cpu)
        *  Thank you very much for using Q-Chem.  Have a nice day.  *
