 Q-Chem 5.4, Q-Chem, Inc., Pleasanton, CA (2021)
 Q-Chem 5.4.1 for Intel X86 EM64T Linux

User input:
--------------------------------------------------------------
$molecule
0 1
H        1.36499000      1.69385000     -0.19748000
O        2.32877000      1.56294000     -0.04168000
H        2.70244000      1.31157000     -0.91665000
$end

$rem
JOBTYPE           sp
METHOD            wb97x-d3
BASIS             pc-2
UNRESTRICTED      True
SYMMETRY          False
SYM_IGNORE        True
SOLVENT_METHOD    smd
$end

$smx
solvent    water
$end

--------------------------------------------------------------

    7     -76.4562213331      3.44e-06  Convergence criterion met
 Total energy in the final basis set =      -76.4538738687
 Total job time:  2.66s(wall), 1.88s(cpu)
        *  Thank you very much for using Q-Chem.  Have a nice day.  *
 Q-Chem 5.4, Q-Chem, Inc., Pleasanton, CA (2021)
 Q-Chem 5.4.1 for Intel X86 EM64T Linux

User input:
--------------------------------------------------------------

$molecule
read
$end

$rem
JOBTYPE           sp
METHOD            wb97x-d3
BASIS             pc-2
UNRESTRICTED      True
SYMMETRY          False
SYM_IGNORE        True
SCF_GUESS         read
MOM_START         1
MOM_METHOD        IMOM
SOLVENT_METHOD    smd
$end

$smx
solvent    water
$end

$occupied
1:4 6
1:5
$end
--------------------------------------------------------------

             Standard Nuclear Orientation (Angstroms)
    I     Atom           X                Y                Z
 ----------------------------------------------------------------
    1      H       1.3649900000     1.6938500000    -0.1974800000
    2      O       2.3287700000     1.5629400000    -0.0416800000
    3      H       2.7024400000     1.3115700000    -0.9166500000
 ----------------------------------------------------------------

    7     -76.1699788412      3.44e-06  Convergence criterion met
 Total energy in the final basis set =      -76.1676313769

                    Orbital Energies (a.u.)
 --------------------------------------------------------------

 Alpha MOs
 -- Occupied --
-19.3979  -1.2089  -0.7224  -0.6029  -0.1334

 Beta MOs
 -- Occupied --
-19.4148  -1.2698  -0.7387  -0.6256  -0.6218

          Ground-State Mulliken Net Atomic Charges

     Atom                 Charge (a.u.)    Spin (a.u.)
  --------------------------------------------------------
      1 H                    -0.172049       0.572370
      2 O                     0.333419      -1.132629
      3 H                    -0.161370       0.560259
  --------------------------------------------------------
  Sum of atomic charges =    -0.000000

                    Cartesian Multipole Moments
 -----------------------------------------------------------------
    Charge (ESU x 10^10)
                 0.0000
    Dipole Moment (Debye)
         X       0.3232      Y       0.0485      Z       0.4810
       Tot       0.5815
    Quadrupole Moments (Debye-Ang)
        XX      -9.0343     XY       0.6696     YY      -9.5283
        XZ       0.6215     YZ       0.5398     ZZ     -11.0315

 Total job time:  2.79s(wall), 2.22s(cpu)
        *  Thank you very much for using Q-Chem.  Have a nice day.  *
