 Q-Chem 5.4, Q-Chem, Inc., Pleasanton, CA (2021)
 Q-Chem 5.4.1 for Intel X86 EM64T Linux

User input:
--------------------------------------------------------------
$molecule
0 1
H        1.36499000      1.69385000     -0.19748000
O        2.32877000      1.56294000     -0.04168000
H        2.70244000      1.31157000     -0.91665000
$end

$rem
JOBTYPE           sp
METHOD            wb97x-d3
BASIS             sto-3g
UNRESTRICTED      False
SYMMETRY          False
SYM_IGNORE        True
SOLVENT_METHOD    smd
$end

$smx
solvent    water
$end
--------------------------------------------------------------

             Standard Nuclear Orientation (Angstroms)
    I     Atom           X                Y                Z
 ----------------------------------------------------------------
    1      H       1.3649900000     1.6938500000    -0.1974800000
    2      O       2.3287700000     1.5629400000    -0.0416800000
    3      H       2.7024400000     1.3115700000    -0.9166500000
 ----------------------------------------------------------------

    7     -75.3208077007      2.17e-08  Convergence criterion met
 Total energy in the final basis set =      -75.3184602363

                    Orbital Energies (a.u.)
 --------------------------------------------------------------

 Alpha MOs
 -- Occupied --
-18.9200  -1.0263  -0.5245  -0.3311  -0.2422

          Ground-State Mulliken Net Atomic Charges

     Atom                 Charge (a.u.)
  ----------------------------------------
      1 H                     0.193937
      2 O                    -0.388200
      3 H                     0.194263
  ----------------------------------------
  Sum of atomic charges =     0.000000

                    Cartesian Multipole Moments
 -----------------------------------------------------------------
    Charge (ESU x 10^10)
                -0.0000
    Dipole Moment (Debye)
         X      -0.8826      Y      -0.1808      Z      -1.5445
       Tot       1.7880
    Quadrupole Moments (Debye-Ang)
        XX      -8.5235     XY      -2.1415     YY      -6.5392
        XZ      -3.8091     YZ      -2.0882     ZZ      -4.6864

 Total job time:  0.77s(wall), 0.22s(cpu)
        *  Thank you very much for using Q-Chem.  Have a nice day.  *
