 Q-Chem 5.4, Q-Chem, Inc., Pleasanton, CA (2021)
 Q-Chem 5.4.1 for Intel X86 EM64T Linux

User input:
--------------------------------------------------------------
$molecule
0 1
H        1.36499000      1.69385000     -0.19748000
O        2.32877000      1.56294000     -0.04168000
H        2.70244000      1.31157000     -0.91665000
$end

$rem
JOBTYPE           sp
METHOD            wb97x-d3
BASIS             pc-2
UNRESTRICTED      True
SYMMETRY          False
SYM_IGNORE        True
CIS_N_ROOTS       10
CIS_SINGLETS      True
CIS_TRIPLETS      False
STATE_ANALYSIS    True
RPA               True
$end
--------------------------------------------------------------

             Standard Nuclear Orientation (Angstroms)
    I     Atom           X                Y                Z
 ----------------------------------------------------------------
    1      H       1.3649900000     1.6938500000    -0.1974800000
    2      O       2.3287700000     1.5629400000    -0.0416800000
    3      H       2.7024400000     1.3115700000    -0.9166500000
 ----------------------------------------------------------------

   10     -76.4412531368      3.36e-09  Convergence criterion met
 Total energy in the final basis set =      -76.4412531368

             TDDFT Excitation Energies
 ---------------------------------------------------

 Excited state   1: excitation energy (eV) =    7.1232
 Total energy for state  1:                   -76.17948063 au
    Trans. Mom.: -0.0000 X  -0.0000 Y   0.0000 Z
    Strength   :     0.0000000000
    X: D(    5) --> V(    1) amplitude =  0.6979 alpha
    X: D(    5) --> V(    1) amplitude = -0.6979 beta

 Excited state   2: excitation energy (eV) =    7.5725
 Total energy for state  2:                   -76.16297039 au
    Trans. Mom.: -0.0870 X  -0.5098 Y   0.1093 Z
    Strength   :     0.0518397939
    X: D(    5) --> V(    1) amplitude =  0.7041 alpha
    X: D(    5) --> V(    1) amplitude =  0.7041 beta

 Excited state   3: excitation energy (eV) =    9.0177
 Total energy for state  3:                   -76.10986011 au
    Trans. Mom.:  0.0000 X   0.0000 Y   0.0000 Z
    Strength   :     0.0000000000
    X: D(    5) --> V(    2) amplitude = -0.6883 alpha
    X: D(    5) --> V(    2) amplitude =  0.6883 beta

 Excited state   4: excitation energy (eV) =    9.1931
 Total energy for state  4:                   -76.10341438 au
    Trans. Mom.: -0.0000 X  -0.0000 Y  -0.0000 Z
    Strength   :     0.0000000000
    X: D(    4) --> V(    1) amplitude =  0.6963 alpha
    X: D(    4) --> V(    1) amplitude = -0.6963 beta

 Excited state   5: excitation energy (eV) =    9.2908
 Total energy for state  5:                   -76.09982099 au
    Trans. Mom.:  0.0002 X   0.0014 Y  -0.0003 Z
    Strength   :     0.0000004614
    X: D(    5) --> V(    2) amplitude =  0.6960 alpha
    X: D(    5) --> V(    2) amplitude =  0.6960 beta

 Excited state   6: excitation energy (eV) =    9.7830
 Total energy for state  6:                   -76.08173388 au
    Trans. Mom.:  0.3288 X   0.0667 Y   0.5726 Z
    Strength   :     0.1055652829
    X: D(    4) --> V(    1) amplitude =  0.7025 alpha
    X: D(    4) --> V(    1) amplitude =  0.7025 beta

 Excited state   7: excitation energy (eV) =   10.9639
 Total energy for state  7:                   -76.03833772 au
    Trans. Mom.:  0.0000 X  -0.0000 Y  -0.0000 Z
    Strength   :     0.0000000000
    X: D(    4) --> V(    2) amplitude =  0.6766 alpha
    X: D(    4) --> V(    3) amplitude =  0.1542 alpha
    X: D(    4) --> V(    2) amplitude = -0.6766 beta
    X: D(    4) --> V(    3) amplitude = -0.1542 beta

 Excited state   8: excitation energy (eV) =   11.5480
 Total energy for state  8:                   -76.01687123 au
    Trans. Mom.:  0.3470 X  -0.0994 Y  -0.1875 Z
    Strength   :     0.0468074997
    X: D(    4) --> V(    2) amplitude =  0.7015 alpha
    X: D(    4) --> V(    2) amplitude =  0.7015 beta

 Excited state   9: excitation energy (eV) =   12.7129
 Total energy for state  9:                   -75.97406346 au
    Trans. Mom.: -0.0000 X   0.0000 Y   0.0000 Z
    Strength   :     0.0000000000
    X: D(    3) --> V(    1) amplitude = -0.6863 alpha
    X: D(    3) --> V(    1) amplitude =  0.6863 beta

 Excited state  10: excitation energy (eV) =   13.4375
 Total energy for state 10:                   -75.94743304 au
    Trans. Mom.: -0.6498 X   0.1856 Y   0.3486 Z
    Strength   :     0.1903667239
    X: D(    3) --> V(    1) amplitude =  0.7032 alpha
    X: D(    3) --> V(    1) amplitude =  0.7032 beta

 ---------------------------------------------------

                    Orbital Energies (a.u.)
 --------------------------------------------------------------

 Alpha MOs
 -- Occupied --
-19.2346  -1.1182  -0.6261  -0.4888  -0.4147

 Beta MOs
 -- Occupied --
-19.2346  -1.1182  -0.6261  -0.4888  -0.4147

                    Cartesian Multipole Moments
 -----------------------------------------------------------------
    Charge (ESU x 10^10)
                 0.0000
    Dipole Moment (Debye)
         X      -0.9958      Y      -0.2035      Z      -1.7403
       Tot       2.0154
    Quadrupole Moments (Debye-Ang)
        XX      -9.3797     XY      -2.6489     YY      -8.0621
        XZ      -4.5863     YZ      -2.1771     ZZ      -5.4667

 Total job time:  11.03s(wall), 9.68s(cpu)
        *  Thank you very much for using Q-Chem.  Have a nice day.  *
