                         Program Version 6.0.0  -   RELEASE  -
|  1> ! Opt RKS wb97x-d3 sto-3g
|  2> %pal nprocs 16 end
|  3> %maxcore 2000
|  4> * xyz 0 1
|  5> H        1.36499000      1.69385000     -0.19748000
|  6> O        2.32877000      1.56294000     -0.04168000
|  7> H        2.70244000      1.31157000     -0.91665000
|  8> *
|  9>
| 10>                          ****END OF INPUT****
 Total Charge           Charge          ....    0
 Multiplicity           Mult            ....    1
 Number of Electrons    NEL             ....   10
Dispersion correction           -0.000001638
FINAL SINGLE POINT ENERGY       -75.313506076754
Dispersion correction             ... done (  0.0 sec)
Dispersion correction           -0.000001617
FINAL SINGLE POINT ENERGY       -75.317602519452
Dispersion correction             ... done (  0.0 sec)
Dispersion correction           -0.000001430
FINAL SINGLE POINT ENERGY       -75.317800605980
Dispersion correction             ... done (  0.0 sec)
Dispersion correction           -0.000001450
FINAL SINGLE POINT ENERGY       -75.317802958960
Dispersion correction             ... done (  0.0 sec)
                    ***********************HURRAY********************

CARTESIAN COORDINATES (ANGSTROEM)
---------------------------------
  H      1.367583    1.686996   -0.227375
  O      2.353544    1.568144    0.002277
  H      2.675073    1.313220   -0.930712

 Multiplicity           Mult            ....    1
 Number of Electrons    NEL             ....   10
 Basis Dimension        Dim             ....    7

ORBITAL ENERGIES
----------------

  NO   OCC          E(Eh)            E(eV)
   0   2.0000     -18.951045      -515.6842
   1   2.0000      -1.028439       -27.9853
   2   2.0000      -0.506734       -13.7889
   3   2.0000      -0.353695        -9.6245
   4   2.0000      -0.247421        -6.7327
   5   0.0000       0.414869        11.2892
   6   0.0000       0.498509        13.5651

MULLIKEN ATOMIC CHARGES
-----------------------
   0 H :    0.153033
   1 O :   -0.306143
   2 H :    0.153110
Sum of atomic charges:    0.0000000

LOEWDIN ATOMIC CHARGES
----------------------
   0 H :    0.108203
   1 O :   -0.216463
   2 H :    0.108259

  Mayer bond orders larger than 0.100000
B(  0-H ,  1-O ) :   0.9712 B(  1-O ,  2-H ) :   0.9712

Dispersion correction           -0.000001450
FINAL SINGLE POINT ENERGY       -75.317802959907

DIPOLE MOMENT
-------------

Method             : SCF
Type of density    : Electron Density
Multiplicity       :   1
Irrep              :   0
Energy             :   -75.3178015103137994 Eh
Relativity type    :
Basis              : AO
                                X                 Y                 Z
Electronic contribution:      0.236794326       0.048452232       0.414139097
Nuclear contribution   :     -0.553046351      -0.113260044      -0.967735390
                        -----------------------------------------
Total Dipole Moment    :     -0.316252025      -0.064807812      -0.553596293
                        -----------------------------------------
Magnitude (a.u.)       :      0.640846512
Magnitude (Debye)      :      1.628902382

Rotational constants in cm-1:            20.788252            14.269974             8.461575
Rotational constants in MHz :        623216.120429        427803.063571        253671.645242

                             ****ORCA TERMINATED NORMALLY****
TOTAL RUN TIME: 0 days 0 hours 4 minutes 2 seconds 931 msec
