 Q-Chem 6.2, Q-Chem, Inc., Pleasanton, CA (2024)
 Q-Chem 6.2.1 for Intel X86 EM64T Linux

User input:
--------------------------------------------------------------
$molecule
0 1
H        1.36499000      1.69385000     -0.19748000
O        2.32877000      1.56294000     -0.04168000
H        2.70244000      1.31157000     -0.91665000
$end

$rem
JOBTYPE         sp
METHOD          wb97x-d3
BASIS           pc-2
UNRESTRICTED    True
SYMMETRY        False
SYM_IGNORE      True
$end

--------------------------------------------------------------

    6     -76.4412529278      9.39e-06  Convergence criterion met
 Total energy =   -76.44125293
 Total job time:  3.39s(wall), 1.67s(cpu)
        *  Thank you very much for using Q-Chem.  Have a nice day.  *
 Q-Chem 6.2, Q-Chem, Inc., Pleasanton, CA (2024)
 Q-Chem 6.2.1 for Intel X86 EM64T Linux

User input:
--------------------------------------------------------------

$molecule
read
$end

$rem
JOBTYPE         sp
METHOD          wb97x-d3
BASIS           pc-2
UNRESTRICTED    True
SYMMETRY        False
SYM_IGNORE      True
SCF_GUESS       read
MOM_START       1
MOM_METHOD      IMOM
$end

$occupied
1:4 6
1:5
$end
--------------------------------------------------------------

             Standard Nuclear Orientation (Angstroms)
    I     Atom           X                Y                Z
 ----------------------------------------------------------------
    1      H       1.3649900000     1.6938500000    -0.1974800000
    2      O       2.3287700000     1.5629400000    -0.0416800000
    3      H       2.7024400000     1.3115700000    -0.9166500000
 ----------------------------------------------------------------

    8     -76.1646410132      1.15e-06  Convergence criterion met
 Total energy =   -76.16464101

                    Orbital Energies (a.u.)
 --------------------------------------------------------------

 Alpha MOs
 -- Occupied --
-19.4405  -1.2542  -0.7674  -0.6449  -0.1742

 Beta MOs
 -- Occupied --
-19.4569  -1.3141  -0.7831  -0.6670  -0.6668

          Ground-State Mulliken Net Atomic Charges

     Atom                 Charge (a.u.)    Spin (a.u.)
  --------------------------------------------------------
      1 H                    -0.169889       0.561188
      2 O                     0.337027      -1.117999
      3 H                    -0.167138       0.556811
  --------------------------------------------------------
  Sum of atomic charges =    -0.000000

                    Cartesian Multipole Moments
 -----------------------------------------------------------------
    Charge (ESU x 10^10)
                 0.0000
    Dipole Moment (Debye)
         X       0.3420      Y       0.0645      Z       0.5728
       Tot       0.6702
    Quadrupole Moments (Debye-Ang)
        XX      -8.7819     XY       0.7373     YY      -9.3383
        XZ       0.8574     YZ       0.6780     ZZ     -10.9019

 Total job time:  4.09s(wall), 2.21s(cpu)
        *  Thank you very much for using Q-Chem.  Have a nice day.  *
