 Q-Chem 6.2, Q-Chem, Inc., Pleasanton, CA (2024)
 Q-Chem 6.2.1 for Intel X86 EM64T Linux

User input:
--------------------------------------------------------------
$molecule
0 1
H        1.36499000      1.69385000     -0.19748000
O        2.32877000      1.56294000     -0.04168000
H        2.70244000      1.31157000     -0.91665000
$end

$rem
JOBTYPE         sp
METHOD          wb97x-d3
BASIS           sto-3g
UNRESTRICTED    False
SYMMETRY        False
SYM_IGNORE      True
$end
--------------------------------------------------------------

             Standard Nuclear Orientation (Angstroms)
    I     Atom           X                Y                Z
 ----------------------------------------------------------------
    1      H       1.3649900000     1.6938500000    -0.1974800000
    2      O       2.3287700000     1.5629400000    -0.0416800000
    3      H       2.7024400000     1.3115700000    -0.9166500000
 ----------------------------------------------------------------

    7     -75.3118844639      5.35e-08  Convergence criterion met
 Total energy =   -75.31188446

                    Orbital Energies (a.u.)
 --------------------------------------------------------------

 Alpha MOs
 -- Occupied --
-18.9359  -1.0353  -0.5339  -0.3304  -0.2436

          Ground-State Mulliken Net Atomic Charges

     Atom                 Charge (a.u.)
  ----------------------------------------
      1 H                     0.173083
      2 O                    -0.346478
      3 H                     0.173395
  ----------------------------------------
  Sum of atomic charges =     0.000000

                    Cartesian Multipole Moments
 -----------------------------------------------------------------
    Charge (ESU x 10^10)
                -0.0000
    Dipole Moment (Debye)
         X      -0.8135      Y      -0.1666      Z      -1.4237
       Tot       1.6482
    Quadrupole Moments (Debye-Ang)
        XX      -8.3319     XY      -1.9775     YY      -6.5229
        XZ      -3.5103     YZ      -1.9205     ZZ      -4.7954

 Total job time:  0.88s(wall), 0.37s(cpu)
        *  Thank you very much for using Q-Chem.  Have a nice day.  *
