 Q-Chem 6.2, Q-Chem, Inc., Pleasanton, CA (2024)
 Q-Chem 6.2.1 for Intel X86 EM64T Linux

User input:
--------------------------------------------------------------
$molecule
0 1
H        1.36499000      1.69385000     -0.19748000
O        2.32877000      1.56294000     -0.04168000
H        2.70244000      1.31157000     -0.91665000
$end

$rem
JOBTYPE           sp
METHOD            wb97x-d3
BASIS             def2-tzvppd
UNRESTRICTED      False
SYMMETRY          False
SYM_IGNORE        True
SOLVENT_METHOD    smd
$end

$smx
solvent    water
$end
--------------------------------------------------------------

             Standard Nuclear Orientation (Angstroms)
    I     Atom           X                Y                Z
 ----------------------------------------------------------------
    1      H       1.3649900000     1.6938500000    -0.1974800000
    2      O       2.3287700000     1.5629400000    -0.0416800000
    3      H       2.7024400000     1.3115700000    -0.9166500000
 ----------------------------------------------------------------

    7     -76.4560764224      5.94e-06  Convergence criterion met
 Total energy =   -76.45372896

                    Orbital Energies (a.u.)
 --------------------------------------------------------------

 Alpha MOs
 -- Occupied --
-19.2349  -1.1156  -0.6204  -0.4951  -0.4206

          Ground-State Mulliken Net Atomic Charges

     Atom                 Charge (a.u.)
  ----------------------------------------
      1 H                     0.258251
      2 O                    -0.515681
      3 H                     0.257430
  ----------------------------------------
  Sum of atomic charges =     0.000000

                    Cartesian Multipole Moments
 -----------------------------------------------------------------
    Charge (ESU x 10^10)
                -0.0000
    Dipole Moment (Debye)
         X      -1.2166      Y      -0.2484      Z      -2.1256
       Tot       2.4617
    Quadrupole Moments (Debye-Ang)
        XX     -10.2609     XY      -3.1695     YY      -8.4016
        XZ      -5.5077     YZ      -2.7052     ZZ      -5.3504

 Total job time:  3.28s(wall), 2.31s(cpu)
        *  Thank you very much for using Q-Chem.  Have a nice day.  *
