 Q-Chem 6.2, Q-Chem, Inc., Pleasanton, CA (2024)
 Q-Chem 6.2.1 for Intel X86 EM64T Linux

User input:
--------------------------------------------------------------
$molecule
0 1
H        1.36499000      1.69385000     -0.19748000
O        2.32877000      1.56294000     -0.04168000
H        2.70244000      1.31157000     -0.91665000
$end

$rem
JOBTYPE         sp
METHOD          wb97x-d3
BASIS           def2-tzvppd
UNRESTRICTED    False
SYMMETRY        False
SYM_IGNORE      True
$end
--------------------------------------------------------------

             Standard Nuclear Orientation (Angstroms)
    I     Atom           X                Y                Z
 ----------------------------------------------------------------
    1      H       1.3649900000     1.6938500000    -0.1974800000
    2      O       2.3287700000     1.5629400000    -0.0416800000
    3      H       2.7024400000     1.3115700000    -0.9166500000
 ----------------------------------------------------------------

    7     -76.4418263809      2.27e-06  Convergence criterion met
 Total energy =   -76.44182638

                    Orbital Energies (a.u.)
 --------------------------------------------------------------

 Alpha MOs
 -- Occupied --
-19.2399  -1.1203  -0.6282  -0.4919  -0.4173

          Ground-State Mulliken Net Atomic Charges

     Atom                 Charge (a.u.)
  ----------------------------------------
      1 H                     0.187062
      2 O                    -0.373294
      3 H                     0.186232
  ----------------------------------------
  Sum of atomic charges =     0.000000

                    Cartesian Multipole Moments
 -----------------------------------------------------------------
    Charge (ESU x 10^10)
                -0.0000
    Dipole Moment (Debye)
         X      -0.9293      Y      -0.1899      Z      -1.6240
       Tot       1.8807
    Quadrupole Moments (Debye-Ang)
        XX      -9.1245     XY      -2.5318     YY      -8.1524
        XZ      -4.3373     YZ      -1.9805     ZZ      -5.5588

 Total job time:  3.04s(wall), 2.14s(cpu)
        *  Thank you very much for using Q-Chem.  Have a nice day.  *
