 Q-Chem 6.2, Q-Chem, Inc., Pleasanton, CA (2024)
 Q-Chem 6.2.1 for Intel X86 EM64T Linux

User input:
--------------------------------------------------------------
$molecule
0 1
H        1.36499000      1.69385000     -0.19748000
O        2.32877000      1.56294000     -0.04168000
H        2.70244000      1.31157000     -0.91665000
$end

$rem
JOBTYPE           sp
METHOD            wb97x-d3
BASIS             pc-2
UNRESTRICTED      False
SYMMETRY          False
SYM_IGNORE        True
CIS_N_ROOTS       10
CIS_SINGLETS      True
CIS_TRIPLETS      False
STATE_ANALYSIS    True
RPA               True
$end
--------------------------------------------------------------

             Standard Nuclear Orientation (Angstroms)
    I     Atom           X                Y                Z
 ----------------------------------------------------------------
    1      H       1.3649900000     1.6938500000    -0.1974800000
    2      O       2.3287700000     1.5629400000    -0.0416800000
    3      H       2.7024400000     1.3115700000    -0.9166500000
 ----------------------------------------------------------------

   10     -76.4412531352      6.73e-09  Convergence criterion met
 Total energy =   -76.44125314

             TDDFT Excitation Energies
 ---------------------------------------------------

 Excited state   1: excitation energy (eV) =        7.5725
 Total energy for state   1:                   -76.16297039 au
    Multiplicity: Singlet
    Trans. Mom.: -0.0870 X  -0.5098 Y   0.1093 Z
    Strength   :     0.0518397380
    X: D(    5) --> V(    1) amplitude =  0.9957

 Excited state   2: excitation energy (eV) =        9.2908
 Total energy for state   2:                   -76.09982099 au
    Multiplicity: Singlet
    Trans. Mom.:  0.0002 X   0.0014 Y  -0.0003 Z
    Strength   :     0.0000004614
    X: D(    5) --> V(    2) amplitude =  0.9842

 Excited state   3: excitation energy (eV) =        9.7830
 Total energy for state   3:                   -76.08173387 au
    Multiplicity: Singlet
    Trans. Mom.:  0.3288 X   0.0667 Y   0.5726 Z
    Strength   :     0.1055651660
    X: D(    4) --> V(    1) amplitude =  0.9934

 Excited state   4: excitation energy (eV) =       11.5480
 Total energy for state   4:                   -76.01687123 au
    Multiplicity: Singlet
    Trans. Mom.:  0.3470 X  -0.0994 Y  -0.1875 Z
    Strength   :     0.0468074925
    X: D(    4) --> V(    2) amplitude =  0.9920

 Excited state   5: excitation energy (eV) =       13.4375
 Total energy for state   5:                   -75.94743304 au
    Multiplicity: Singlet
    Trans. Mom.: -0.6498 X   0.1856 Y   0.3486 Z
    Strength   :     0.1903667909
    X: D(    3) --> V(    1) amplitude =  0.9945

 Excited state   6: excitation energy (eV) =       14.2421
 Total energy for state   6:                   -75.91786506 au
    Multiplicity: Singlet
    Trans. Mom.:  0.0005 X   0.0026 Y  -0.0007 Z
    Strength   :     0.0000025280
    X: D(    5) --> V(    3) amplitude =  0.9886

 Excited state   7: excitation energy (eV) =       15.0809
 Total energy for state   7:                   -75.88704153 au
    Multiplicity: Singlet
    Trans. Mom.:  0.0680 X   0.3995 Y  -0.0860 Z
    Strength   :     0.0634143696
    X: D(    5) --> V(    4) amplitude =  0.9954

 Excited state   8: excitation energy (eV) =       15.2992
 Total energy for state   8:                   -75.87901942 au
    Multiplicity: Singlet
    Trans. Mom.: -0.1958 X  -0.0406 Y  -0.3436 Z
    Strength   :     0.0592481098
    X: D(    3) --> V(    2) amplitude =  0.9122
    X: D(    5) --> V(    6) amplitude = -0.3808

 Excited state   9: excitation energy (eV) =       15.7797
 Total energy for state   9:                   -75.86136020 au
    Multiplicity: Singlet
    Trans. Mom.:  0.0355 X   0.2088 Y  -0.0448 Z
    Strength   :     0.0181258720
    X: D(    5) --> V(    5) amplitude =  0.9967

 Excited state  10: excitation energy (eV) =       16.7974
 Total energy for state  10:                   -75.82395870 au
    Multiplicity: Singlet
    Trans. Mom.:  0.0988 X   0.0196 Y   0.1696 Z
    Strength   :     0.0160088859
    X: D(    3) --> V(    2) amplitude = -0.2248
    X: D(    4) --> V(    4) amplitude =  0.5374
    X: D(    4) --> V(    5) amplitude = -0.4757
    X: D(    5) --> V(    6) amplitude = -0.6556

 ---------------------------------------------------

                    Orbital Energies (a.u.)
 --------------------------------------------------------------

 Alpha MOs
 -- Occupied --
-19.2346  -1.1182  -0.6261  -0.4888  -0.4147

                    Cartesian Multipole Moments
 -----------------------------------------------------------------
    Charge (ESU x 10^10)
                -0.0000
    Dipole Moment (Debye)
         X      -0.9958      Y      -0.2035      Z      -1.7403
       Tot       2.0154
    Quadrupole Moments (Debye-Ang)
        XX      -9.3797     XY      -2.6489     YY      -8.0621
        XZ      -4.5863     YZ      -2.1771     ZZ      -5.4667

 Total job time:  14.09s(wall), 11.75s(cpu)
        *  Thank you very much for using Q-Chem.  Have a nice day.  *
