                         Program Version 6.0.0  -   RELEASE  -
|  1> ! sp RKS wb97x-d3 sto-3g
|  2> %pal nprocs 16 end
|  3> %maxcore 2000
|  4> * xyz 0 1
|  5> H        1.36499000      1.69385000     -0.19748000
|  6> O        2.32877000      1.56294000     -0.04168000
|  7> H        2.70244000      1.31157000     -0.91665000
|  8> *
|  9>
| 10>                          ****END OF INPUT****

CARTESIAN COORDINATES (ANGSTROEM)
---------------------------------
  H      1.364990    1.693850   -0.197480
  O      2.328770    1.562940   -0.041680
  H      2.702440    1.311570   -0.916650

 Total Charge           Charge          ....    0
 Multiplicity           Mult            ....    1
 Number of Electrons    NEL             ....   10
 Basis Dimension        Dim             ....    7

ORBITAL ENERGIES
----------------

  NO   OCC          E(Eh)            E(eV)
   0   2.0000     -18.937331      -515.3110
   1   2.0000      -1.035235       -28.1702
   2   2.0000      -0.533924       -14.5288
   3   2.0000      -0.330485        -8.9930
   4   2.0000      -0.243811        -6.6344
   5   0.0000       0.434377        11.8200
   6   0.0000       0.549984        14.9658

MULLIKEN ATOMIC CHARGES
-----------------------
   0 H :    0.172827
   1 O :   -0.346096
   2 H :    0.173269
Sum of atomic charges:   -0.0000000

LOEWDIN ATOMIC CHARGES
----------------------
   0 H :    0.120674
   1 O :   -0.241589
   2 H :    0.120916

  Mayer bond orders larger than 0.100000
B(  0-H ,  1-O ) :   0.9587 B(  1-O ,  2-H ) :   0.9585

Dispersion correction           -0.000001638
FINAL SINGLE POINT ENERGY       -75.313506060725

DIPOLE MOMENT
-------------

Method             : SCF
Type of density    : Electron Density
Multiplicity       :   1
Irrep              :   0
Energy             :   -75.3135044224428469 Eh
Relativity type    :
Basis              : AO
                                X                 Y                 Z
Electronic contribution:      0.171413424       0.034690009       0.297990730
Nuclear contribution   :     -0.491184335      -0.100266162      -0.857972374
                        -----------------------------------------
Total Dipole Moment    :     -0.319770911      -0.065576153      -0.559981644
                        -----------------------------------------
Magnitude (a.u.)       :      0.648176757
Magnitude (Debye)      :      1.647534386

Rotational constants in cm-1:            26.425585            13.640330             8.996517
Rotational constants in MHz :        792219.102251        408926.807946        269708.805506

                             ****ORCA TERMINATED NORMALLY****
TOTAL RUN TIME: 0 days 0 hours 1 minutes 31 seconds 640 msec
